 Gaussian 09, Revision D.01,
 Gaussian 09:  EM64L-G09RevD.01 24-Apr-2013

 ----------------------------------------------------------------------
 #p 6d B3LYP/gen opt freq=NoRaman scf=(xqc, tight) scrf=(iefpcm,SMD,sol
 vent=acetonitrile) empiricaldispersion=GD3
 ----------------------------------------------------------------------

 --
 Mn
 --
 Symbolic Z-matrix:
 Charge = -1 Multiplicity = 1

 SCF Done:  E(RB3LYP) =  -2060.30593057     A.U. after   29 cycles
 SCF Done:  E(RB3LYP) =  -2060.32233515     A.U. after   21 cycles
 SCF Done:  E(RB3LYP) =  -2060.33048899     A.U. after   27 cycles
 SCF Done:  E(RB3LYP) =  -2060.33138798     A.U. after   22 cycles
 SCF Done:  E(RB3LYP) =  -2060.33164964     A.U. after   21 cycles
 SCF Done:  E(RB3LYP) =  -2060.33180883     A.U. after   21 cycles
 SCF Done:  E(RB3LYP) =  -2060.33186492     A.U. after   21 cycles
 SCF Done:  E(RB3LYP) =  -2060.33190881     A.U. after   17 cycles
 SCF Done:  E(RB3LYP) =  -2060.33194064     A.U. after   21 cycles
 SCF Done:  E(RB3LYP) =  -2060.33197547     A.U. after   21 cycles
 SCF Done:  E(RB3LYP) =  -2060.33202980     A.U. after   15 cycles
 SCF Done:  E(RB3LYP) =  -2060.33203665     A.U. after   22 cycles
 SCF Done:  E(RB3LYP) =  -2060.33204936     A.U. after   17 cycles
 SCF Done:  E(RB3LYP) =  -2060.33205326     A.U. after   20 cycles
 SCF Done:  E(RB3LYP) =  -2060.33205441     A.U. after   14 cycles
 SCF Done:  E(RB3LYP) =  -2060.33205676     A.U. after   21 cycles
 SCF Done:  E(RB3LYP) =  -2060.33205542     A.U. after   21 cycles
 SCF Done:  E(RB3LYP) =  -2060.33205631     A.U. after   19 cycles
 SCF Done:  E(RB3LYP) =  -2060.33205605     A.U. after   16 cycles
 Optimization completed.
    -- Stationary point found.
 Normal termination of Gaussian 09 at Wed Feb  1 03:37:53 2017.

 ------------------------------------------------------------------
 #P Geom=AllCheck Guess=TCheck SCRF=Check GenChk RB3LYP/ChkBas Freq
 ------------------------------------------------------------------

 Structure from the checkpoint file:  "/mnt/sirius01/home_lab_users/jllg/jlloret/ICIQ_Mn/LMn_m1_CO3_A.chk"
 --
 Mn
 --
 Charge = -1 Multiplicity = 1

                         Standard orientation:
 ---------------------------------------------------------------------
 Center     Atomic      Atomic             Coordinates (Angstroms)
 Number     Number       Type             X           Y           Z
 ---------------------------------------------------------------------
      1          6           0        1.372510    0.591907   -0.025682
      2          7           0        2.657647    0.623799    0.470970
      3          7           0        1.152907    1.911732   -0.358535
      4          6           0        2.251834    2.721629   -0.096067
      5          6           0        3.201686    1.904202    0.426139
      6          6           0       -0.046235    2.319818   -1.054364
      7          7           0       -1.217098    1.870908   -0.332043
      8          6           0       -1.377563    0.548019    0.014463
      9          7           0       -2.658879    0.525198    0.515980
     10          6           0       -3.261398    1.778650    0.459586
     11          6           0       -2.351248    2.632668   -0.075096
     12         25           0        0.021320   -0.925544   -0.181511
     13          6           0       -1.207075   -1.784302   -1.139361
     14          8           0       -2.038619   -2.357322   -1.771911
     15          6           0        1.291092   -1.878685   -0.987932
     16          8           0        2.130834   -2.513088   -1.541364
     17          6           0       -0.006993   -1.722590    1.389982
     18          8           0       -0.017254   -2.421169    2.360194
     19          1           0        2.252289    3.781835   -0.299217
     20          1           0        4.200280    2.116246    0.777206
     21          1           0       -0.050938    1.854709   -2.050246
     22          1           0       -0.066229    3.405435   -1.141836
     23          1           0       -4.267132    1.948183    0.813397
     24          1           0       -2.400118    3.689776   -0.287984
     25          6           0        3.381209   -0.531601    0.981474
     26          1           0        2.670881   -1.213543    1.451850
     27          1           0        3.891747   -1.061996    0.171981
     28          1           0        4.118191   -0.197057    1.715049
     29          6           0       -3.334457   -0.661394    1.021278
     30          1           0       -4.071754   -0.362973    1.769935
     31          1           0       -3.837862   -1.197167    0.210522
     32          1           0       -2.594263   -1.323611    1.470634
 ---------------------------------------------------------------------

 SCF Done:  E(RB3LYP) =  -2060.33205605     A.U. after    3 cycles

 The electronic state is 1-A.
 Alpha  occ. eigenvalues -- -235.43932 -27.30056 -23.38185 -23.37978 -23.37390
 Alpha  occ. eigenvalues --  -19.15596 -19.15249 -19.14642 -14.38072 -14.38005
 Alpha  occ. eigenvalues --  -14.37971 -14.37887 -10.25870 -10.23144 -10.22889
 Alpha  occ. eigenvalues --  -10.22134 -10.22080 -10.21940 -10.21418 -10.21351
 Alpha  occ. eigenvalues --  -10.21176 -10.21117 -10.20537 -10.20517  -3.09859
 Alpha  occ. eigenvalues --   -1.96283  -1.95909  -1.94903  -1.04752  -1.04291
 Alpha  occ. eigenvalues --   -1.03491  -1.02993  -1.01397  -0.93226  -0.89475
 Alpha  occ. eigenvalues --   -0.78358  -0.74932  -0.73118  -0.70908  -0.67398
 Alpha  occ. eigenvalues --   -0.60744  -0.60142  -0.57616  -0.56066  -0.52333
 Alpha  occ. eigenvalues --   -0.52150  -0.51548  -0.49688  -0.49571  -0.47902
 Alpha  occ. eigenvalues --   -0.45938  -0.45046  -0.44788  -0.44461  -0.43658
 Alpha  occ. eigenvalues --   -0.43302  -0.41742  -0.40832  -0.40485  -0.39420
 Alpha  occ. eigenvalues --   -0.39152  -0.38817  -0.38539  -0.37888  -0.37744
 Alpha  occ. eigenvalues --   -0.37170  -0.37110  -0.36879  -0.36443  -0.35787
 Alpha  occ. eigenvalues --   -0.35304  -0.29077  -0.28132  -0.27598  -0.27540
 Alpha  occ. eigenvalues --   -0.24486  -0.22899  -0.17698  -0.17119  -0.16407
 Alpha  occ. eigenvalues --   -0.12347
 Alpha virt. eigenvalues --   -0.00415   0.01906   0.01937   0.02074   0.02502
 Alpha virt. eigenvalues --    0.02594   0.02869   0.03412   0.03521   0.03991
 Alpha virt. eigenvalues --    0.04092   0.04325   0.04880   0.04986   0.05375

 Mulliken charges:
               1
     1  C   -0.487669
     2  N    0.011307
     3  N   -0.008437
     4  C   -0.053842
     5  C    0.043977
     6  C   -0.068961
     7  N   -0.031487
     8  C   -0.467651
     9  N    0.018642
    10  C    0.091048
    11  C   -0.117935
    12  Mn  -0.851788
    13  C    0.134548
    14  O   -0.462428
    15  C    0.038783
    16  O   -0.475604
    17  C    0.335662
    18  O   -0.458681
    19  H    0.189892
    20  H    0.187394
    21  H    0.176234
    22  H    0.176643
    23  H    0.188150
    24  H    0.190415
    25  C   -0.169395
    26  H    0.182509
    27  H    0.175626
    28  H    0.163485
    29  C   -0.170154
    30  H    0.163911
    31  H    0.175332
    32  H    0.180475
 Sum of Mulliken charges =  -1.00000

 Dipole moment (field-independent basis, Debye):
    X=             -0.2610    Y=             17.8150    Z=              2.9051  Tot=             18.0522
 Quadrupole moment (field-independent basis, Debye-Ang):
   XX=           -113.2691   YY=           -140.6199   ZZ=           -152.5519
   XY=              0.4036   XZ=             -0.5913   YZ=             -9.5752

  Exact polarizability: 397.443   1.447 388.498   2.440 -18.071 326.862
 Approx polarizability: 424.271  -0.153 408.472   4.032 -18.614 359.470

                      1                      2                      3
                      A                      A                      A
 Frequencies --     43.3191                52.1783                71.4918
 Red. masses --      8.0923                 5.6418                 8.0530
 Frc consts  --      0.0089                 0.0091                 0.0243
 IR Inten    --      0.9630                 1.1380                15.0304

                      4                      5                      6
                      A                      A                      A
 Frequencies --     74.4588                81.7142                93.2436
 Red. masses --      7.3365                10.2135                 9.2715
 Frc consts  --      0.0240                 0.0402                 0.0475
 IR Inten    --      0.3769                 6.7014                 2.7486

                      7                      8                      9
                      A                      A                      A
 Frequencies --     94.0689               107.1802               120.1404
 Red. masses --      6.5094                 3.7190                 1.1835
 Frc consts  --      0.0339                 0.0252                 0.0101
 IR Inten    --      1.8861                 0.6669                 1.8792

                     10                     11                     12
                      A                      A                      A
 Frequencies --    121.7647               145.5665               190.9984
 Red. masses --      1.2661                 2.6393                 6.0677
 Frc consts  --      0.0111                 0.0330                 0.1304
 IR Inten    --      1.7594                13.6330                 0.0860

                     13                     14                     15
                      A                      A                      A
 Frequencies --    205.0344               227.1139               236.3998
 Red. masses --      3.9888                 4.6109                 5.3028
 Frc consts  --      0.0988                 0.1401                 0.1746
 IR Inten    --     16.7919                20.9242                28.1992

                     16                     17                     18
                      A                      A                      A
 Frequencies --    249.2284               263.2229               300.6285
 Red. masses --      4.7325                 6.1161                 4.4561
 Frc consts  --      0.1732                 0.2497                 0.2373
 IR Inten    --      2.2852                12.7242                 3.7565

                     19                     20                     21
                      A                      A                      A
 Frequencies --    334.7181               386.2128               410.2505
 Red. masses --      2.8914                 4.7876                11.8882
 Frc consts  --      0.1909                 0.4208                 1.1789
 IR Inten    --     14.8543                 1.7001                 1.6231

                     22                     23                     24
                      A                      A                      A
 Frequencies --    458.0306               464.5199               467.5953
 Red. masses --      3.4071                 3.5702                 6.4887
 Frc consts  --      0.4211                 0.4539                 0.8359
 IR Inten    --     13.4273                24.0351                19.5610

                     25                     26                     27
                      A                      A                      A
 Frequencies --    512.4141               523.0221               532.0541
 Red. masses --     11.0240                13.3034                14.2826
 Frc consts  --      1.7054                 2.1441                 2.3821
 IR Inten    --      3.1289                21.6217                 3.0393

                     28                     29                     30
                      A                      A                      A
 Frequencies --    582.2644               603.4331               604.0053
 Red. masses --     14.1973                 3.7296                 3.7906
 Frc consts  --      2.8359                 0.8002                 0.8148
 IR Inten    --     32.6810                 1.4528                12.8520

                     31                     32                     33
                      A                      A                      A
 Frequencies --    627.2358               633.7395               650.7858
 Red. masses --     11.5260                10.9207                 4.9853
 Frc consts  --      2.6717                 2.5842                 1.2440
 IR Inten    --    198.8837               199.6582                42.7766

                     34                     35                     36
                      A                      A                      A
 Frequencies --    657.6961               675.6418               677.8929
 Red. masses --      5.3396                 5.6767                 4.5441
 Frc consts  --      1.3608                 1.5268                 1.2303
 IR Inten    --    135.2871               165.2719               140.7476

                     37                     38                     39
                      A                      A                      A
 Frequencies --    693.2541               701.6626               720.9645
 Red. masses --      1.2956                 1.5970                 6.3028
 Frc consts  --      0.3669                 0.4632                 1.9302
 IR Inten    --    402.7787                11.1810                48.9963

                     40                     41                     42
                      A                      A                      A
 Frequencies --    785.7205               817.9699               821.1047
 Red. masses --      5.2692                 1.9295                 1.3390
 Frc consts  --      1.9166                 0.7606                 0.5319
 IR Inten    --      7.5775                15.4161                 0.9356

                     43                     44                     45
                      A                      A                      A
 Frequencies --    824.5747              1007.8869              1014.0802
 Red. masses --      2.4477                 2.1489                 3.4298
 Frc consts  --      0.9806                 1.2861                 2.0781
 IR Inten    --     24.5749                 4.7853                52.9030

                     46                     47                     48
                      A                      A                      A
 Frequencies --   1023.1238              1033.8286              1063.3361
 Red. masses --      3.3769                 5.2007                 3.2952
 Frc consts  --      2.0827                 3.2750                 2.1952
 IR Inten    --      9.6474                24.7716               102.8952

                     49                     50                     51
                      A                      A                      A
 Frequencies --   1081.4896              1090.3481              1099.5263
 Red. masses --      1.9073                 1.7798                 1.1987
 Frc consts  --      1.3143                 1.2467                 0.8538
 IR Inten    --     93.5883               103.5424                 5.4560

                     52                     53                     54
                      A                      A                      A
 Frequencies --   1110.8633              1151.3009              1152.6168
 Red. masses --      1.3372                 1.3258                 1.3218
 Frc consts  --      0.9722                 1.0354                 1.0346
 IR Inten    --     42.8211                16.0798                15.8522

                     55                     56                     57
                      A                      A                      A
 Frequencies --   1191.3524              1239.3012              1264.2926
 Red. masses --      1.9210                 1.7102                 2.4853
 Frc consts  --      1.6064                 1.5476                 2.3406
 IR Inten    --    302.4337                93.4307                24.9687

                     58                     59                     60
                      A                      A                      A
 Frequencies --   1320.2939              1322.1123              1338.6999
 Red. masses --      4.4610                 1.7903                 4.6170
 Frc consts  --      4.5817                 1.8438                 4.8751
 IR Inten    --     12.9032                28.7494               152.3143

                     61                     62                     63
                      A                      A                      A
 Frequencies --   1359.9250              1391.8048              1400.1977
 Red. masses --      8.0659                 2.2760                 5.6450
 Frc consts  --      8.7888                 2.5976                 6.5207
 IR Inten    --    348.0271                44.8318               259.0485

                     64                     65                     66
                      A                      A                      A
 Frequencies --   1434.0966              1434.5928              1457.6539
 Red. masses --      1.9527                 1.9683                 1.2019
 Frc consts  --      2.3662                 2.3867                 1.5047
 IR Inten    --    123.3475                91.3840                50.9148

                     67                     68                     69
                      A                      A                      A
 Frequencies --   1459.8687              1465.9355              1473.6549
 Red. masses --      1.2191                 1.5346                 1.1262
 Frc consts  --      1.5308                 1.9430                 1.4410
 IR Inten    --     92.6873                62.7416                21.5359

                     70                     71                     72
                      A                      A                      A
 Frequencies --   1477.0079              1482.2334              1498.8384
 Red. masses --      1.2840                 1.3194                 1.0930
 Frc consts  --      1.6504                 1.7080                 1.4467
 IR Inten    --     21.7884                83.6880                85.6610

                     73                     74                     75
                      A                      A                      A
 Frequencies --   1499.9153              1603.6777              1605.4409
 Red. masses --      1.0948                 4.6880                 4.8331
 Frc consts  --      1.4512                 7.1034                 7.3395
 IR Inten    --     91.9118                 0.7779                 0.7177

                     76                     77                     78
                      A                      A                      A
 Frequencies --   1747.6734              1773.8317              1863.1499
 Red. masses --     13.2213                13.1984                13.1965
 Frc consts  --     23.7928                24.4679                26.9901
 IR Inten    --   3406.4460              2607.7887              2257.8944

                     79                     80                     81
                      A                      A                      A
 Frequencies --   3004.3681              3054.2993              3054.6445
 Red. masses --      1.0709                 1.0348                 1.0362
 Frc consts  --      5.6954                 5.6874                 5.6964
 IR Inten    --    213.5941               127.7859                58.5327

                     82                     83                     84
                      A                      A                      A
 Frequencies --   3126.3788              3126.8394              3157.4966
 Red. masses --      1.1029                 1.1034                 1.1048
 Frc consts  --      6.3512                 6.3563                 6.4896
 IR Inten    --     35.5290                33.6591                 3.4405

                     85                     86                     87
                      A                      A                      A
 Frequencies --   3160.6427              3167.7769              3277.0569
 Red. masses --      1.0953                 1.1029                 1.0914
 Frc consts  --      6.4469                 6.5205                 6.9056
 IR Inten    --      5.3700                 4.0192                 8.1273

                     88                     89                     90
                      A                      A                      A
 Frequencies --   3277.1574              3296.2331              3296.3368
 Red. masses --      1.0915                 1.1103                 1.1103
 Frc consts  --      6.9069                 7.1075                 7.1080
 IR Inten    --     10.1797                 0.0405                 0.5490

 - Thermochemistry -
 -------------------
 Temperature   298.150 Kelvin.  Pressure   1.00000 Atm.
 Atom     1 has atomic number  6 and mass  12.00000

 Molecular mass:   315.02899 amu.
 Principal axes and moments of inertia in atomic units:
                           1         2         3
     Eigenvalues --  4454.146555470.694187787.37830
           X            0.99999   0.00459  -0.00025
           Y           -0.00459   0.99981  -0.01885
           Z            0.00017   0.01885   0.99982
 This molecule is an asymmetric top.
 Rotational symmetry number  1.
 Warning -- assumption of classical behavior for rotation
           may cause significant error
 Rotational temperatures (Kelvin)      0.01945     0.01583     0.01112
 Rotational constants (GHZ):           0.40518     0.32989     0.23175
 Zero-point vibrational energy     614747.1 (Joules/Mol)
                                  146.92809 (Kcal/Mol)
 Warning -- explicit consideration of  30 degrees of freedom as
           vibrations may cause significant error
 Vibrational temperatures:     62.33    75.07   102.86   107.13   117.57
          (Kelvin)            134.16   135.34   154.21   172.85   175.19
                              209.44   274.80   295.00   326.77   340.13
                              358.58   378.72   432.54   481.58   555.67
                              590.26   659.00   668.34   672.76   737.25
                              752.51   765.51   837.75   868.20   869.03
                              902.45   911.81   936.33   946.28   972.10
                              975.34   997.44  1009.53  1037.31  1130.48
                             1176.87  1181.39  1186.38  1450.12  1459.03
                             1472.05  1487.45  1529.90  1556.02  1568.77
                             1581.97  1598.28  1656.46  1658.36  1714.09
                             1783.08  1819.03  1899.61  1902.22  1926.09
                             1956.63  2002.49  2014.57  2063.34  2064.06
                             2097.24  2100.42  2109.15  2120.26  2125.08
                             2132.60  2156.49  2158.04  2307.33  2309.87
                             2514.51  2552.14  2680.65  4322.61  4394.45
                             4394.95  4498.16  4498.82  4542.93  4547.45
                             4557.72  4714.95  4715.09  4742.54  4742.69

 Zero-point correction=                           0.234145 (Hartree/Particle)
 Thermal correction to Energy=                    0.253559
 Thermal correction to Enthalpy=                  0.254503
 Thermal correction to Gibbs Free Energy=         0.185857
 Sum of electronic and zero-point Energies=          -2060.097911
 Sum of electronic and thermal Energies=             -2060.078498
 Sum of electronic and thermal Enthalpies=           -2060.077553
 Sum of electronic and thermal Free Energies=        -2060.146199

                     E (Thermal)             CV                S
                      KCal/Mol        Cal/Mol-Kelvin    Cal/Mol-Kelvin
 Total                  159.110             71.324            144.477
 Electronic               0.000              0.000              0.000
 Translational            0.889              2.981             43.139
 Rotational               0.889              2.981             33.606
 Vibrational            157.333             65.363             67.732
 Vibration     1          0.595              1.980              5.101
 Vibration     2          0.596              1.977              4.733
 Vibration     3          0.598              1.968              4.112
 Vibration     4          0.599              1.966              4.032
 Vibration     5          0.600              1.962              3.849
 Vibration     6          0.602              1.954              3.591
 Vibration     7          0.603              1.953              3.574
 Vibration     8          0.606              1.943              3.319
 Vibration     9          0.609              1.932              3.098
 Vibration    10          0.609              1.931              3.072
 Vibration    11          0.617              1.907              2.729
 Vibration    12          0.634              1.852              2.218
 Vibration    13          0.640              1.833              2.087
 Vibration    14          0.651              1.800              1.902
 Vibration    15          0.655              1.785              1.830
 Vibration    16          0.662              1.764              1.736
 Vibration    17          0.670              1.740              1.640
 Vibration    18          0.693              1.673              1.413
 Vibration    19          0.716              1.606              1.237
 Vibration    20          0.755              1.500              1.015
 Vibration    21          0.774              1.448              0.926
 Vibration    22          0.816              1.343              0.772
 Vibration    23          0.822              1.329              0.753
 Vibration    24          0.825              1.322              0.744
 Vibration    25          0.868              1.222              0.628
 Vibration    26          0.878              1.199              0.603
 Vibration    27          0.887              1.179              0.583
 Vibration    28          0.939              1.070              0.481
 Vibration    29          0.962              1.025              0.444
 Vibration    30          0.962              1.023              0.443

 Normal termination of Gaussian 09 at Wed Feb  1 03:50:32 2017.
